+ 0.5 0 1 cbr 210 ------- 2 0.0 2.0 0 0
- 0.5 0 1 cbr 210 ------- 2 0.0 2.0 0 0
+ 0.505 0 1 cbr 210 ------- 2 0.0 2.0 1 1
- 0.505 0 1 cbr 210 ------- 2 0.0 2.0 1 1
+ 0.51 0 1 cbr 210 ------- 2 0.0 2.0 2 2
- 0.51 0 1 cbr 210 ------- 2 0.0 2.0 2 2
+ 0.515 0 1 cbr 210 ------- 2 0.0 2.0 3 3
- 0.515 0 1 cbr 210 ------- 2 0.0 2.0 3 3
+ 0.52 0 1 cbr 210 ------- 2 0.0 2.0 4 4
- 0.52 0 1 cbr 210 ------- 2 0.0 2.0 4 4
r 0.52336 0 1 cbr 210 ------- 2 0.0 2.0 0 0
+ 0.52336 1 2 cbr 210 ------- 2 0.0 2.0 0 0
- 0.52336 1 2 cbr 210 ------- 2 0.0 2.0 0 0
+ 0.525 0 1 cbr 210 ------- 2 0.0 2.0 5 5
- 0.525 0 1 cbr 210 ------- 2 0.0 2.0 5 5
r 0.52836 0 1 cbr 210 ------- 2 0.0 2.0 1 1
+ 0.52836 1 2 cbr 210 ------- 2 0.0 2.0 1 1
- 0.52836 1 2 cbr 210 ------- 2 0.0 2.0 1 1
+ 0.53 0 1 cbr 210 ------- 2 0.0 2.0 6 6
- 0.53 0 1 cbr 210 ------- 2 0.0 2.0 6 6
r 0.53336 0 1 cbr 210 ------- 2 0.0 2.0 2 2
+ 0.53336 1 2 cbr 210 ------- 2 0.0 2.0 2 2
- 0.53336 1 2 cbr 210 ------- 2 0.0 2.0 2 2
+ 0.535 0 1 cbr 210 ------- 2 0.0 2.0 7 7
- 0.535 0 1 cbr 210 ------- 2 0.0 2.0 7 7
r 0.53836 0 1 cbr 210 ------- 2 0.0 2.0 3 3
+ 0.53836 1 2 cbr 210 ------- 2 0.0 2.0 3 3
- 0.53836 1 2 cbr 210 ------- 2 0.0 2.0 3 3
+ 0.54 0 1 cbr 210 ------- 2 0.0 2.0 8 8
- 0.54 0 1 cbr 210 ------- 2 0.0 2.0 8 8
r 0.54336 0 1 cbr 210 ------- 2 0.0 2.0 4 4
+ 0.54336 1 2 cbr 210 ------- 2 0.0 2.0 4 4
- 0.54336 1 2 cbr 210 ------- 2 0.0 2.0 4 4
+ 0.545 0 1 cbr 210 ------- 2 0.0 2.0 9 9
- 0.545 0 1 cbr 210 ------- 2 0.0 2.0 9 9
r 0.54672 1 2 cbr 210 ------- 2 0.0 2.0 0 0
r 0.54836 0 1 cbr 210 ------- 2 0.0 2.0 5 5
+ 0.54836 1 2 cbr 210 ------- 2 0.0 2.0 5 5
- 0.54836 1 2 cbr 210 ------- 2 0.0 2.0 5 5
+ 0.55 0 1 cbr 210 ------- 2 0.0 2.0 10 10
- 0.55 0 1 cbr 210 ------- 2 0.0 2.0 10 10
r 0.55172 1 2 cbr 210 ------- 2 0.0 2.0 1 1
r 0.55336 0 1 cbr 210 ------- 2 0.0 2.0 6 6
+ 0.55336 1 2 cbr 210 ------- 2 0.0 2.0 6 6
- 0.55336 1 2 cbr 210 ------- 2 0.0 2.0 6 6
+ 0.555 0 1 cbr 210 ------- 2 0.0 2.0 11 11
- 0.555 0 1 cbr 210 ------- 2 0.0 2.0 11 11
r 0.55672 1 2 cbr 210 ------- 2 0.0 2.0 2 2
r 0.55836 0 1 cbr 210 ------- 2 0.0 2.0 7 7
+ 0.55836 1 2 cbr 210 ------- 2 0.0 2.0 7 7
- 0.55836 1 2 cbr 210 ------- 2 0.0 2.0 7 7
+ 0.56 0 1 cbr 210 ------- 2 0.0 2.0 12 12
- 0.56 0 1 cbr 210 ------- 2 0.0 2.0 12 12
r 0.56172 1 2 cbr 210 ------- 2 0.0 2.0 3 3
r 0.56336 0 1 cbr 210 ------- 2 0.0 2.0 8 8
+ 0.56336 1 2 cbr 210 ------- 2 0.0 2.0 8 8
- 0.56336 1 2 cbr 210 ------- 2 0.0 2.0 8 8
+ 0.565 0 1 cbr 210 ------- 2 0.0 2.0 13 13
- 0.565 0 1 cbr 210 ------- 2 0.0 2.0 13 13
r 0.56672 1 2 cbr 210 ------- 2 0.0 2.0 4 4
r 0.56836 0 1 cbr 210 ------- 2 0.0 2.0 9 9
+ 0.56836 1 2 cbr 210 ------- 2 0.0 2.0 9 9
- 0.56836 1 2 cbr 210 ------- 2 0.0 2.0 9 9
+ 0.57 0 1 cbr 210 ------- 2 0.0 2.0 14 14
- 0.57 0 1 cbr 210 ------- 2 0.0 2.0 14 14
r 0.57172 1 2 cbr 210 ------- 2 0.0 2.0 5 5
r 0.57336 0 1 cbr 210 ------- 2 0.0 2.0 10 10
+ 0.57336 1 2 cbr 210 ------- 2 0.0 2.0 10 10
- 0.57336 1 2 cbr 210 ------- 2 0.0 2.0 10 10
+ 0.575 0 1 cbr 210 ------- 2 0.0 2.0 15 15
- 0.575 0 1 cbr 210 ------- 2 0.0 2.0 15 15
r 0.57672 1 2 cbr 210 ------- 2 0.0 2.0 6 6
r 0.57836 0 1 cbr 210 ------- 2 0.0 2.0 11 11
+ 0.57836 1 2 cbr 210 ------- 2 0.0 2.0 11 11
- 0.57836 1 2 cbr 210 ------- 2 0.0 2.0 11 11
+ 0.58 0 1 cbr 210 ------- 2 0.0 2.0 16 16
- 0.58 0 1 cbr 210 ------- 2 0.0 2.0 16 16
r 0.58172 1 2 cbr 210 ------- 2 0.0 2.0 7 7
r 0.58336 0 1 cbr 210 ------- 2 0.0 2.0 12 12
+ 0.58336 1 2 cbr 210 ------- 2 0.0 2.0 12 12
- 0.58336 1 2 cbr 210 ------- 2 0.0 2.0 12 12
+ 0.585 0 1 cbr 210 ------- 2 0.0 2.0 17 17
- 0.585 0 1 cbr 210 ------- 2 0.0 2.0 17 17
r 0.58672 1 2 cbr 210 ------- 2 0.0 2.0 8 8
r 0.58836 0 1 cbr 210 ------- 2 0.0 2.0 13 13
+ 0.58836 1 2 cbr 210 ------- 2 0.0 2.0 13 13
- 0.58836 1 2 cbr 210 ------- 2 0.0 2.0 13 13
+ 0.59 0 1 cbr 210 ------- 2 0.0 2.0 18 18
- 0.59 0 1 cbr 210 ------- 2 0.0 2.0 18 18
r 0.59172 1 2 cbr 210 ------- 2 0.0 2.0 9 9
r 0.59336 0 1 cbr 210 ------- 2 0.0 2.0 14 14
+ 0.59336 1 2 cbr 210 ------- 2 0.0 2.0 14 14
- 0.59336 1 2 cbr 210 ------- 2 0.0 2.0 14 14
+ 0.595 0 1 cbr 210 ------- 2 0.0 2.0 19 19
- 0.595 0 1 cbr 210 ------- 2 0.0 2.0 19 19
r 0.59672 1 2 cbr 210 ------- 2 0.0 2.0 10 10
r 0.59836 0 1 cbr 210 ------- 2 0.0 2.0 15 15
+ 0.59836 1 2 cbr 210 ------- 2 0.0 2.0 15 15
- 0.59836 1 2 cbr 210 ------- 2 0.0 2.0 15 15
+ 0.6 0 1 cbr 210 ------- 2 0.0 2.0 20 20
- 0.6 0 1 cbr 210 ------- 2 0.0 2.0 20 20
r 0.60172 1 2 cbr 210 ------- 2 0.0 2.0 11 11
r 0.60336 0 1 cbr 210 ------- 2 0.0 2.0 16 16
+ 0.60336 1 2 cbr 210 ------- 2 0.0 2.0 16 16
- 0.60336 1 2 cbr 210 ------- 2 0.0 2.0 16 16
+ 0.605 0 1 cbr 210 ------- 2 0.0 2.0 21 21
- 0.605 0 1 cbr 210 ------- 2 0.0 2.0 21 21
r 0.60672 1 2 cbr 210 ------- 2 0.0 2.0 12 12
r 0.60836 0 1 cbr 210 ------- 2 0.0 2.0 17 17
+ 0.60836 1 2 cbr 210 ------- 2 0.0 2.0 17 17
- 0.60836 1 2 cbr 210 ------- 2 0.0 2.0 17 17
+ 0.61 0 1 cbr 210 ------- 2 0.0 2.0 22 22
- 0.61 0 1 cbr 210 ------- 2 0.0 2.0 22 22
r 0.61172 1 2 cbr 210 ------- 2 0.0 2.0 13 13
r 0.61336 0 1 cbr 210 ------- 2 0.0 2.0 18 18
+ 0.61336 1 2 cbr 210 ------- 2 0.0 2.0 18 18
- 0.61336 1 2 cbr 210 ------- 2 0.0 2.0 18 18
+ 0.615 0 1 cbr 210 ------- 2 0.0 2.0 23 23
- 0.615 0 1 cbr 210 ------- 2 0.0 2.0 23 23
r 0.61672 1 2 cbr 210 ------- 2 0.0 2.0 14 14
r 0.61836 0 1 cbr 210 ------- 2 0.0 2.0 19 19
+ 0.61836 1 2 cbr 210 ------- 2 0.0 2.0 19 19
- 0.61836 1 2 cbr 210 ------- 2 0.0 2.0 19 19
+ 0.62 0 1 cbr 210 ------- 2 0.0 2.0 24 24
- 0.62 0 1 cbr 210 ------- 2 0.0 2.0 24 24
r 0.62172 1 2 cbr 210 ------- 2 0.0 2.0 15 15
r 0.62336 0 1 cbr 210 ------- 2 0.0 2.0 20 20
+ 0.62336 1 2 cbr 210 ------- 2 0.0 2.0 20 20
- 0.62336 1 2 cbr 210 ------- 2 0.0 2.0 20 20
+ 0.625 0 1 cbr 210 ------- 2 0.0 2.0 25 25
- 0.625 0 1 cbr 210 ------- 2 0.0 2.0 25 25
r 0.62672 1 2 cbr 210 ------- 2 0.0 2.0 16 16
r 0.62836 0 1 cbr 210 ------- 2 0.0 2.0 21 21
+ 0.62836 1 2 cbr 210 ------- 2 0.0 2.0 21 21
- 0.62836 1 2 cbr 210 ------- 2 0.0 2.0 21 21
+ 0.63 0 1 cbr 210 ------- 2 0.0 2.0 26 26
- 0.63 0 1 cbr 210 ------- 2 0.0 2.0 26 26
r 0.63172 1 2 cbr 210 ------- 2 0.0 2.0 17 17
r 0.63336 0 1 cbr 210 ------- 2 0.0 2.0 22 22
+ 0.63336 1 2 cbr 210 ------- 2 0.0 2.0 22 22
- 0.63336 1 2 cbr 210 ------- 2 0.0 2.0 22 22
+ 0.635 0 1 cbr 210 ------- 2 0.0 2.0 27 27
- 0.635 0 1 cbr 210 ------- 2 0.0 2.0 27 27
r 0.63672 1 2 cbr 210 ------- 2 0.0 2.0 18 18
r 0.63836 0 1 cbr 210 ------- 2 0.0 2.0 23 23
+ 0.63836 1 2 cbr 210 ------- 2 0.0 2.0 23 23
- 0.63836 1 2 cbr 210 ------- 2 0.0 2.0 23 23
+ 0.64 0 1 cbr 210 ------- 2 0.0 2.0 28 28
- 0.64 0 1 cbr 210 ------- 2 0.0 2.0 28 28
r 0.64172 1 2 cbr 210 ------- 2 0.0 2.0 19 19
r 0.64336 0 1 cbr 210 ------- 2 0.0 2.0 24 24
+ 0.64336 1 2 cbr 210 ------- 2 0.0 2.0 24 24
- 0.64336 1 2 cbr 210 ------- 2 0.0 2.0 24 24
+ 0.645 0 1 cbr 210 ------- 2 0.0 2.0 29 29
- 0.645 0 1 cbr 210 ------- 2 0.0 2.0 29 29
r 0.64672 1 2 cbr 210 ------- 2 0.0 2.0 20 20
r 0.64836 0 1 cbr 210 ------- 2 0.0 2.0 25 25
+ 0.64836 1 2 cbr 210 ------- 2 0.0 2.0 25 25
- 0.64836 1 2 cbr 210 ------- 2 0.0 2.0 25 25
+ 0.65 0 1 cbr 210 ------- 2 0.0 2.0 30 30
- 0.65 0 1 cbr 210 ------- 2 0.0 2.0 30 30
r 0.65172 1 2 cbr 210 ------- 2 0.0 2.0 21 21
r 0.65336 0 1 cbr 210 ------- 2 0.0 2.0 26 26
+ 0.65336 1 2 cbr 210 ------- 2 0.0 2.0 26 26
- 0.65336 1 2 cbr 210 ------- 2 0.0 2.0 26 26
+ 0.655 0 1 cbr 210 ------- 2 0.0 2.0 31 31
- 0.655 0 1 cbr 210 ------- 2 0.0 2.0 31 31
r 0.65672 1 2 cbr 210 ------- 2 0.0 2.0 22 22
r 0.65836 0 1 cbr 210 ------- 2 0.0 2.0 27 27
+ 0.65836 1 2 cbr 210 ------- 2 0.0 2.0 27 27
- 0.65836 1 2 cbr 210 ------- 2 0.0 2.0 27 27
+ 0.66 0 1 cbr 210 ------- 2 0.0 2.0 32 32
- 0.66 0 1 cbr 210 ------- 2 0.0 2.0 32 32
r 0.66172 1 2 cbr 210 ------- 2 0.0 2.0 23 23
r 0.66336 0 1 cbr 210 ------- 2 0.0 2.0 28 28
+ 0.66336 1 2 cbr 210 ------- 2 0.0 2.0 28 28
- 0.66336 1 2 cbr 210 ------- 2 0.0 2.0 28 28
+ 0.665 0 1 cbr 210 ------- 2 0.0 2.0 33 33
- 0.665 0 1 cbr 210 ------- 2 0.0 2.0 33 33
r 0.66672 1 2 cbr 210 ------- 2 0.0 2.0 24 24
r 0.66836 0 1 cbr 210 ------- 2 0.0 2.0 29 29
+ 0.66836 1 2 cbr 210 ------- 2 0.0 2.0 29 29
- 0.66836 1 2 cbr 210 ------- 2 0.0 2.0 29 29
+ 0.67 0 1 cbr 210 ------- 2 0.0 2.0 34 34
- 0.67 0 1 cbr 210 ------- 2 0.0 2.0 34 34
r 0.67172 1 2 cbr 210 ------- 2 0.0 2.0 25 25
r 0.67336 0 1 cbr 210 ------- 2 0.0 2.0 30 30
+ 0.67336 1 2 cbr 210 ------- 2 0.0 2.0 30 30
- 0.67336 1 2 cbr 210 ------- 2 0.0 2.0 30 30
+ 0.675 0 1 cbr 210 ------- 2 0.0 2.0 35 35
- 0.675 0 1 cbr 210 ------- 2 0.0 2.0 35 35
r 0.67672 1 2 cbr 210 ------- 2 0.0 2.0 26 26
r 0.67836 0 1 cbr 210 ------- 2 0.0 2.0 31 31
+ 0.67836 1 2 cbr 210 ------- 2 0.0 2.0 31 31
- 0.67836 1 2 cbr 210 ------- 2 0.0 2.0 31 31
+ 0.68 0 1 cbr 210 ------- 2 0.0 2.0 36 36
- 0.68 0 1 cbr 210 ------- 2 0.0 2.0 36 36
r 0.68172 1 2 cbr 210 ------- 2 0.0 2.0 27 27
r 0.68336 0 1 cbr 210 ------- 2 0.0 2.0 32 32
+ 0.68336 1 2 cbr 210 ------- 2 0.0 2.0 32 32
- 0.68336 1 2 cbr 210 ------- 2 0.0 2.0 32 32
+ 0.685 0 1 cbr 210 ------- 2 0.0 2.0 37 37
- 0.685 0 1 cbr 210 ------- 2 0.0 2.0 37 37
r 0.68672 1 2 cbr 210 ------- 2 0.0 2.0 28 28
r 0.68836 0 1 cbr 210 ------- 2 0.0 2.0 33 33
+ 0.68836 1 2 cbr 210 ------- 2 0.0 2.0 33 33
- 0.68836 1 2 cbr 210 ------- 2 0.0 2.0 33 33
+ 0.69 0 1 cbr 210 ------- 2 0.0 2.0 38 38
- 0.69 0 1 cbr 210 ------- 2 0.0 2.0 38 38
r 0.69172 1 2 cbr 210 ------- 2 0.0 2.0 29 29
r 0.69336 0 1 cbr 210 ------- 2 0.0 2.0 34 34
+ 0.69336 1 2 cbr 210 ------- 2 0.0 2.0 34 34
- 0.69336 1 2 cbr 210 ------- 2 0.0 2.0 34 34
+ 0.695 0 1 cbr 210 ------- 2 0.0 2.0 39 39
- 0.695 0 1 cbr 210 ------- 2 0.0 2.0 39 39
r 0.69672 1 2 cbr 210 ------- 2 0.0 2.0 30 30
r 0.69836 0 1 cbr 210 ------- 2 0.0 2.0 35 35
+ 0.69836 1 2 cbr 210 ------- 2 0.0 2.0 35 35
- 0.69836 1 2 cbr 210 ------- 2 0.0 2.0 35 35
+ 0.7 0 1 cbr 210 ------- 2 0.0 2.0 40 40
- 0.7 0 1 cbr 210 ------- 2 0.0 2.0 40 40
r 0.70172 1 2 cbr 210 ------- 2 0.0 2.0 31 31
r 0.70336 0 1 cbr 210 ------- 2 0.0 2.0 36 36
+ 0.70336 1 2 cbr 210 ------- 2 0.0 2.0 36 36
- 0.70336 1 2 cbr 210 ------- 2 0.0 2.0 36 36
+ 0.705 0 1 cbr 210 ------- 2 0.0 2.0 41 41
- 0.705 0 1 cbr 210 ------- 2 0.0 2.0 41 41
r 0.70672 1 2 cbr 210 ------- 2 0.0 2.0 32 32
r 0.70836 0 1 cbr 210 ------- 2 0.0 2.0 37 37
+ 0.70836 1 2 cbr 210 ------- 2 0.0 2.0 37 37
- 0.70836 1 2 cbr 210 ------- 2 0.0 2.0 37 37
+ 0.71 0 1 cbr 210 ------- 2 0.0 2.0 42 42
- 0.71 0 1 cbr 210 ------- 2 0.0 2.0 42 42
r 0.71172 1 2 cbr 210 ------- 2 0.0 2.0 33 33
r 0.71336 0 1 cbr 210 ------- 2 0.0 2.0 38 38
+ 0.71336 1 2 cbr 210 ------- 2 0.0 2.0 38 38
- 0.71336 1 2 cbr 210 ------- 2 0.0 2.0 38 38
+ 0.715 0 1 cbr 210 ------- 2 0.0 2.0 43 43
- 0.715 0 1 cbr 210 ------- 2 0.0 2.0 43 43
r 0.71672 1 2 cbr 210 ------- 2 0.0 2.0 34 34
r 0.71836 0 1 cbr 210 ------- 2 0.0 2.0 39 39
+ 0.71836 1 2 cbr 210 ------- 2 0.0 2.0 39 39
- 0.71836 1 2 cbr 210 ------- 2 0.0 2.0 39 39
+ 0.72 0 1 cbr 210 ------- 2 0.0 2.0 44 44
- 0.72 0 1 cbr 210 ------- 2 0.0 2.0 44 44
r 0.72172 1 2 cbr 210 ------- 2 0.0 2.0 35 35
r 0.72336 0 1 cbr 210 ------- 2 0.0 2.0 40 40
+ 0.72336 1 2 cbr 210 ------- 2 0.0 2.0 40 40
- 0.72336 1 2 cbr 210 ------- 2 0.0 2.0 40 40
+ 0.725 0 1 cbr 210 ------- 2 0.0 2.0 45 45
- 0.725 0 1 cbr 210 ------- 2 0.0 2.0 45 45
r 0.72672 1 2 cbr 210 ------- 2 0.0 2.0 36 36
r 0.72836 0 1 cbr 210 ------- 2 0.0 2.0 41 41
+ 0.72836 1 2 cbr 210 ------- 2 0.0 2.0 41 41
- 0.72836 1 2 cbr 210 ------- 2 0.0 2.0 41 41
+ 0.73 0 1 cbr 210 ------- 2 0.0 2.0 46 46
- 0.73 0 1 cbr 210 ------- 2 0.0 2.0 46 46
r 0.73172 1 2 cbr 210 ------- 2 0.0 2.0 37 37
r 0.73336 0 1 cbr 210 ------- 2 0.0 2.0 42 42
+ 0.73336 1 2 cbr 210 ------- 2 0.0 2.0 42 42
- 0.73336 1 2 cbr 210 ------- 2 0.0 2.0 42 42
+ 0.735 0 1 cbr 210 ------- 2 0.0 2.0 47 47
- 0.735 0 1 cbr 210 ------- 2 0.0 2.0 47 47
r 0.73672 1 2 cbr 210 ------- 2 0.0 2.0 38 38
r 0.73836 0 1 cbr 210 ------- 2 0.0 2.0 43 43
+ 0.73836 1 2 cbr 210 ------- 2 0.0 2.0 43 43
- 0.73836 1 2 cbr 210 ------- 2 0.0 2.0 43 43
+ 0.74 0 1 cbr 210 ------- 2 0.0 2.0 48 48
- 0.74 0 1 cbr 210 ------- 2 0.0 2.0 48 48
r 0.74172 1 2 cbr 210 ------- 2 0.0 2.0 39 39
r 0.74336 0 1 cbr 210 ------- 2 0.0 2.0 44 44
+ 0.74336 1 2 cbr 210 ------- 2 0.0 2.0 44 44
- 0.74336 1 2 cbr 210 ------- 2 0.0 2.0 44 44
+ 0.745 0 1 cbr 210 ------- 2 0.0 2.0 49 49
- 0.745 0 1 cbr 210 ------- 2 0.0 2.0 49 49
r 0.74672 1 2 cbr 210 ------- 2 0.0 2.0 40 40
r 0.74836 0 1 cbr 210 ------- 2 0.0 2.0 45 45
+ 0.74836 1 2 cbr 210 ------- 2 0.0 2.0 45 45
- 0.74836 1 2 cbr 210 ------- 2 0.0 2.0 45 45
+ 0.75 0 1 cbr 210 ------- 2 0.0 2.0 50 50
- 0.75 0 1 cbr 210 ------- 2 0.0 2.0 50 50
r 0.75172 1 2 cbr 210 ------- 2 0.0 2.0 41 41
r 0.75336 0 1 cbr 210 ------- 2 0.0 2.0 46 46
+ 0.75336 1 2 cbr 210 ------- 2 0.0 2.0 46 46
- 0.75336 1 2 cbr 210 ------- 2 0.0 2.0 46 46
+ 0.755 0 1 cbr 210 ------- 2 0.0 2.0 51 51
- 0.755 0 1 cbr 210 ------- 2 0.0 2.0 51 51
r 0.75672 1 2 cbr 210 ------- 2 0.0 2.0 42 42
r 0.75836 0 1 cbr 210 ------- 2 0.0 2.0 47 47
+ 0.75836 1 2 cbr 210 ------- 2 0.0 2.0 47 47
- 0.75836 1 2 cbr 210 ------- 2 0.0 2.0 47 47
+ 0.76 0 1 cbr 210 ------- 2 0.0 2.0 52 52
- 0.76 0 1 cbr 210 ------- 2 0.0 2.0 52 52
r 0.76172 1 2 cbr 210 ------- 2 0.0 2.0 43 43
r 0.76336 0 1 cbr 210 ------- 2 0.0 2.0 48 48
+ 0.76336 1 2 cbr 210 ------- 2 0.0 2.0 48 48
- 0.76336 1 2 cbr 210 ------- 2 0.0 2.0 48 48
+ 0.765 0 1 cbr 210 ------- 2 0.0 2.0 53 53
- 0.765 0 1 cbr 210 ------- 2 0.0 2.0 53 53
r 0.76672 1 2 cbr 210 ------- 2 0.0 2.0 44 44
r 0.76836 0 1 cbr 210 ------- 2 0.0 2.0 49 49
+ 0.76836 1 2 cbr 210 ------- 2 0.0 2.0 49 49
- 0.76836 1 2 cbr 210 ------- 2 0.0 2.0 49 49
+ 0.77 0 1 cbr 210 ------- 2 0.0 2.0 54 54
- 0.77 0 1 cbr 210 ------- 2 0.0 2.0 54 54
r 0.77172 1 2 cbr 210 ------- 2 0.0 2.0 45 45
r 0.77336 0 1 cbr 210 ------- 2 0.0 2.0 50 50
+ 0.77336 1 2 cbr 210 ------- 2 0.0 2.0 50 50
- 0.77336 1 2 cbr 210 ------- 2 0.0 2.0 50 50
+ 0.775 0 1 cbr 210 ------- 2 0.0 2.0 55 55
- 0.775 0 1 cbr 210 ------- 2 0.0 2.0 55 55
r 0.77672 1 2 cbr 210 ------- 2 0.0 2.0 46 46
r 0.77836 0 1 cbr 210 ------- 2 0.0 2.0 51 51
+ 0.77836 1 2 cbr 210 ------- 2 0.0 2.0 51 51
- 0.77836 1 2 cbr 210 ------- 2 0.0 2.0 51 51
+ 0.78 0 1 cbr 210 ------- 2 0.0 2.0 56 56
- 0.78 0 1 cbr 210 ------- 2 0.0 2.0 56 56
r 0.78172 1 2 cbr 210 ------- 2 0.0 2.0 47 47
r 0.78336 0 1 cbr 210 ------- 2 0.0 2.0 52 52
+ 0.78336 1 2 cbr 210 ------- 2 0.0 2.0 52 52
- 0.78336 1 2 cbr 210 ------- 2 0.0 2.0 52 52
+ 0.785 0 1 cbr 210 ------- 2 0.0 2.0 57 57
- 0.785 0 1 cbr 210 ------- 2 0.0 2.0 57 57
r 0.78672 1 2 cbr 210 ------- 2 0.0 2.0 48 48
r 0.78836 0 1 cbr 210 ------- 2 0.0 2.0 53 53
+ 0.78836 1 2 cbr 210 ------- 2 0.0 2.0 53 53
- 0.78836 1 2 cbr 210 ------- 2 0.0 2.0 53 53
+ 0.79 0 1 cbr 210 ------- 2 0.0 2.0 58 58
- 0.79 0 1 cbr 210 ------- 2 0.0 2.0 58 58
r 0.79172 1 2 cbr 210 ------- 2 0.0 2.0 49 49
r 0.79336 0 1 cbr 210 ------- 2 0.0 2.0 54 54
+ 0.79336 1 2 cbr 210 ------- 2 0.0 2.0 54 54
- 0.79336 1 2 cbr 210 ------- 2 0.0 2.0 54 54
+ 0.795 0 1 cbr 210 ------- 2 0.0 2.0 59 59
- 0.795 0 1 cbr 210 ------- 2 0.0 2.0 59 59
r 0.79672 1 2 cbr 210 ------- 2 0.0 2.0 50 50
r 0.79836 0 1 cbr 210 ------- 2 0.0 2.0 55 55
+ 0.79836 1 2 cbr 210 ------- 2 0.0 2.0 55 55
- 0.79836 1 2 cbr 210 ------- 2 0.0 2.0 55 55
+ 0.8 0 1 cbr 210 ------- 2 0.0 2.0 60 60
- 0.8 0 1 cbr 210 ------- 2 0.0 2.0 60 60
r 0.80172 1 2 cbr 210 ------- 2 0.0 2.0 51 51
r 0.80336 0 1 cbr 210 ------- 2 0.0 2.0 56 56
+ 0.80336 1 2 cbr 210 ------- 2 0.0 2.0 56 56
- 0.80336 1 2 cbr 210 ------- 2 0.0 2.0 56 56
+ 0.805 0 1 cbr 210 ------- 2 0.0 2.0 61 61
- 0.805 0 1 cbr 210 ------- 2 0.0 2.0 61 61
r 0.80672 1 2 cbr 210 ------- 2 0.0 2.0 52 52
r 0.80836 0 1 cbr 210 ------- 2 0.0 2.0 57 57
+ 0.80836 1 2 cbr 210 ------- 2 0.0 2.0 57 57
- 0.80836 1 2 cbr 210 ------- 2 0.0 2.0 57 57
+ 0.81 0 1 cbr 210 ------- 2 0.0 2.0 62 62
- 0.81 0 1 cbr 210 ------- 2 0.0 2.0 62 62
r 0.81172 1 2 cbr 210 ------- 2 0.0 2.0 53 53
r 0.81336 0 1 cbr 210 ------- 2 0.0 2.0 58 58
+ 0.81336 1 2 cbr 210 ------- 2 0.0 2.0 58 58
- 0.81336 1 2 cbr 210 ------- 2 0.0 2.0 58 58
+ 0.815 0 1 cbr 210 ------- 2 0.0 2.0 63 63
- 0.815 0 1 cbr 210 ------- 2 0.0 2.0 63 63
r 0.81672 1 2 cbr 210 ------- 2 0.0 2.0 54 54
r 0.81836 0 1 cbr 210 ------- 2 0.0 2.0 59 59
+ 0.81836 1 2 cbr 210 ------- 2 0.0 2.0 59 59
- 0.81836 1 2 cbr 210 ------- 2 0.0 2.0 59 59
+ 0.82 0 1 cbr 210 ------- 2 0.0 2.0 64 64
- 0.82 0 1 cbr 210 ------- 2 0.0 2.0 64 64
r 0.82172 1 2 cbr 210 ------- 2 0.0 2.0 55 55
r 0.82336 0 1 cbr 210 ------- 2 0.0 2.0 60 60
+ 0.82336 1 2 cbr 210 ------- 2 0.0 2.0 60 60
- 0.82336 1 2 cbr 210 ------- 2 0.0 2.0 60 60
+ 0.825 0 1 cbr 210 ------- 2 0.0 2.0 65 65
- 0.825 0 1 cbr 210 ------- 2 0.0 2.0 65 65
r 0.82672 1 2 cbr 210 ------- 2 0.0 2.0 56 56
r 0.82836 0 1 cbr 210 ------- 2 0.0 2.0 61 61
+ 0.82836 1 2 cbr 210 ------- 2 0.0 2.0 61 61
- 0.82836 1 2 cbr 210 ------- 2 0.0 2.0 61 61
+ 0.83 0 1 cbr 210 ------- 2 0.0 2.0 66 66
- 0.83 0 1 cbr 210 ------- 2 0.0 2.0 66 66
r 0.83172 1 2 cbr 210 ------- 2 0.0 2.0 57 57
r 0.83336 0 1 cbr 210 ------- 2 0.0 2.0 62 62
+ 0.83336 1 2 cbr 210 ------- 2 0.0 2.0 62 62
- 0.83336 1 2 cbr 210 ------- 2 0.0 2.0 62 62
+ 0.835 0 1 cbr 210 ------- 2 0.0 2.0 67 67
- 0.835 0 1 cbr 210 ------- 2 0.0 2.0 67 67
r 0.83672 1 2 cbr 210 ------- 2 0.0 2.0 58 58
r 0.83836 0 1 cbr 210 ------- 2 0.0 2.0 63 63
+ 0.83836 1 2 cbr 210 ------- 2 0.0 2.0 63 63
- 0.83836 1 2 cbr 210 ------- 2 0.0 2.0 63 63
+ 0.84 0 1 cbr 210 ------- 2 0.0 2.0 68 68
- 0.84 0 1 cbr 210 ------- 2 0.0 2.0 68 68
r 0.84172 1 2 cbr 210 ------- 2 0.0 2.0 59 59
r 0.84336 0 1 cbr 210 ------- 2 0.0 2.0 64 64
+ 0.84336 1 2 cbr 210 ------- 2 0.0 2.0 64 64
- 0.84336 1 2 cbr 210 ------- 2 0.0 2.0 64 64
+ 0.845 0 1 cbr 210 ------- 2 0.0 2.0 69 69
- 0.845 0 1 cbr 210 ------- 2 0.0 2.0 69 69
r 0.84672 1 2 cbr 210 ------- 2 0.0 2.0 60 60
r 0.84836 0 1 cbr 210 ------- 2 0.0 2.0 65 65
+ 0.84836 1 2 cbr 210 ------- 2 0.0 2.0 65 65
- 0.84836 1 2 cbr 210 ------- 2 0.0 2.0 65 65
+ 0.85 0 1 cbr 210 ------- 2 0.0 2.0 70 70
- 0.85 0 1 cbr 210 ------- 2 0.0 2.0 70 70
r 0.85172 1 2 cbr 210 ------- 2 0.0 2.0 61 61
r 0.85336 0 1 cbr 210 ------- 2 0.0 2.0 66 66
+ 0.85336 1 2 cbr 210 ------- 2 0.0 2.0 66 66
- 0.85336 1 2 cbr 210 ------- 2 0.0 2.0 66 66
+ 0.855 0 1 cbr 210 ------- 2 0.0 2.0 71 71
- 0.855 0 1 cbr 210 ------- 2 0.0 2.0 71 71
r 0.85672 1 2 cbr 210 ------- 2 0.0 2.0 62 62
r 0.85836 0 1 cbr 210 ------- 2 0.0 2.0 67 67
+ 0.85836 1 2 cbr 210 ------- 2 0.0 2.0 67 67
- 0.85836 1 2 cbr 210 ------- 2 0.0 2.0 67 67
+ 0.86 0 1 cbr 210 ------- 2 0.0 2.0 72 72
- 0.86 0 1 cbr 210 ------- 2 0.0 2.0 72 72
r 0.86172 1 2 cbr 210 ------- 2 0.0 2.0 63 63
r 0.86336 0 1 cbr 210 ------- 2 0.0 2.0 68 68
+ 0.86336 1 2 cbr 210 ------- 2 0.0 2.0 68 68
- 0.86336 1 2 cbr 210 ------- 2 0.0 2.0 68 68
+ 0.865 0 1 cbr 210 ------- 2 0.0 2.0 73 73
- 0.865 0 1 cbr 210 ------- 2 0.0 2.0 73 73
r 0.86672 1 2 cbr 210 ------- 2 0.0 2.0 64 64
r 0.86836 0 1 cbr 210 ------- 2 0.0 2.0 69 69
+ 0.86836 1 2 cbr 210 ------- 2 0.0 2.0 69 69
- 0.86836 1 2 cbr 210 ------- 2 0.0 2.0 69 69
+ 0.87 0 1 cbr 210 ------- 2 0.0 2.0 74 74
- 0.87 0 1 cbr 210 ------- 2 0.0 2.0 74 74
r 0.87172 1 2 cbr 210 ------- 2 0.0 2.0 65 65
r 0.87336 0 1 cbr 210 ------- 2 0.0 2.0 70 70
+ 0.87336 1 2 cbr 210 ------- 2 0.0 2.0 70 70
- 0.87336 1 2 cbr 210 ------- 2 0.0 2.0 70 70
+ 0.875 0 1 cbr 210 ------- 2 0.0 2.0 75 75
- 0.875 0 1 cbr 210 ------- 2 0.0 2.0 75 75
r 0.87672 1 2 cbr 210 ------- 2 0.0 2.0 66 66
r 0.87836 0 1 cbr 210 ------- 2 0.0 2.0 71 71
+ 0.87836 1 2 cbr 210 ------- 2 0.0 2.0 71 71
- 0.87836 1 2 cbr 210 ------- 2 0.0 2.0 71 71
+ 0.88 0 1 cbr 210 ------- 2 0.0 2.0 76 76
- 0.88 0 1 cbr 210 ------- 2 0.0 2.0 76 76
r 0.88172 1 2 cbr 210 ------- 2 0.0 2.0 67 67
r 0.88336 0 1 cbr 210 ------- 2 0.0 2.0 72 72
+ 0.88336 1 2 cbr 210 ------- 2 0.0 2.0 72 72
- 0.88336 1 2 cbr 210 ------- 2 0.0 2.0 72 72
+ 0.885 0 1 cbr 210 ------- 2 0.0 2.0 77 77
- 0.885 0 1 cbr 210 ------- 2 0.0 2.0 77 77
r 0.88672 1 2 cbr 210 ------- 2 0.0 2.0 68 68
r 0.88836 0 1 cbr 210 ------- 2 0.0 2.0 73 73
+ 0.88836 1 2 cbr 210 ------- 2 0.0 2.0 73 73
- 0.88836 1 2 cbr 210 ------- 2 0.0 2.0 73 73
+ 0.89 0 1 cbr 210 ------- 2 0.0 2.0 78 78
- 0.89 0 1 cbr 210 ------- 2 0.0 2.0 78 78
r 0.89172 1 2 cbr 210 ------- 2 0.0 2.0 69 69
r 0.89336 0 1 cbr 210 ------- 2 0.0 2.0 74 74
+ 0.89336 1 2 cbr 210 ------- 2 0.0 2.0 74 74
- 0.89336 1 2 cbr 210 ------- 2 0.0 2.0 74 74
+ 0.895 0 1 cbr 210 ------- 2 0.0 2.0 79 79
- 0.895 0 1 cbr 210 ------- 2 0.0 2.0 79 79
r 0.89672 1 2 cbr 210 ------- 2 0.0 2.0 70 70
r 0.89836 0 1 cbr 210 ------- 2 0.0 2.0 75 75
+ 0.89836 1 2 cbr 210 ------- 2 0.0 2.0 75 75
- 0.89836 1 2 cbr 210 ------- 2 0.0 2.0 75 75
+ 0.9 0 1 cbr 210 ------- 2 0.0 2.0 80 80
- 0.9 0 1 cbr 210 ------- 2 0.0 2.0 80 80
r 0.90172 1 2 cbr 210 ------- 2 0.0 2.0 71 71
r 0.90336 0 1 cbr 210 ------- 2 0.0 2.0 76 76
+ 0.90336 1 2 cbr 210 ------- 2 0.0 2.0 76 76
- 0.90336 1 2 cbr 210 ------- 2 0.0 2.0 76 76
+ 0.905 0 1 cbr 210 ------- 2 0.0 2.0 81 81
- 0.905 0 1 cbr 210 ------- 2 0.0 2.0 81 81
r 0.90672 1 2 cbr 210 ------- 2 0.0 2.0 72 72
r 0.90836 0 1 cbr 210 ------- 2 0.0 2.0 77 77
+ 0.90836 1 2 cbr 210 ------- 2 0.0 2.0 77 77
- 0.90836 1 2 cbr 210 ------- 2 0.0 2.0 77 77
+ 0.91 0 1 cbr 210 ------- 2 0.0 2.0 82 82
- 0.91 0 1 cbr 210 ------- 2 0.0 2.0 82 82
r 0.91172 1 2 cbr 210 ------- 2 0.0 2.0 73 73
r 0.91336 0 1 cbr 210 ------- 2 0.0 2.0 78 78
+ 0.91336 1 2 cbr 210 ------- 2 0.0 2.0 78 78
- 0.91336 1 2 cbr 210 ------- 2 0.0 2.0 78 78
+ 0.915 0 1 cbr 210 ------- 2 0.0 2.0 83 83
- 0.915 0 1 cbr 210 ------- 2 0.0 2.0 83 83
r 0.91672 1 2 cbr 210 ------- 2 0.0 2.0 74 74
r 0.91836 0 1 cbr 210 ------- 2 0.0 2.0 79 79
+ 0.91836 1 2 cbr 210 ------- 2 0.0 2.0 79 79
- 0.91836 1 2 cbr 210 ------- 2 0.0 2.0 79 79
+ 0.92 0 1 cbr 210 ------- 2 0.0 2.0 84 84
- 0.92 0 1 cbr 210 ------- 2 0.0 2.0 84 84
r 0.92172 1 2 cbr 210 ------- 2 0.0 2.0 75 75
r 0.92336 0 1 cbr 210 ------- 2 0.0 2.0 80 80
+ 0.92336 1 2 cbr 210 ------- 2 0.0 2.0 80 80
- 0.92336 1 2 cbr 210 ------- 2 0.0 2.0 80 80
+ 0.925 0 1 cbr 210 ------- 2 0.0 2.0 85 85
- 0.925 0 1 cbr 210 ------- 2 0.0 2.0 85 85
r 0.92672 1 2 cbr 210 ------- 2 0.0 2.0 76 76
r 0.92836 0 1 cbr 210 ------- 2 0.0 2.0 81 81
+ 0.92836 1 2 cbr 210 ------- 2 0.0 2.0 81 81
- 0.92836 1 2 cbr 210 ------- 2 0.0 2.0 81 81
+ 0.93 0 1 cbr 210 ------- 2 0.0 2.0 86 86
- 0.93 0 1 cbr 210 ------- 2 0.0 2.0 86 86
r 0.93172 1 2 cbr 210 ------- 2 0.0 2.0 77 77
r 0.93336 0 1 cbr 210 ------- 2 0.0 2.0 82 82
+ 0.93336 1 2 cbr 210 ------- 2 0.0 2.0 82 82
- 0.93336 1 2 cbr 210 ------- 2 0.0 2.0 82 82
+ 0.935 0 1 cbr 210 ------- 2 0.0 2.0 87 87
- 0.935 0 1 cbr 210 ------- 2 0.0 2.0 87 87
r 0.93672 1 2 cbr 210 ------- 2 0.0 2.0 78 78
r 0.93836 0 1 cbr 210 ------- 2 0.0 2.0 83 83
+ 0.93836 1 2 cbr 210 ------- 2 0.0 2.0 83 83
- 0.93836 1 2 cbr 210 ------- 2 0.0 2.0 83 83
+ 0.94 0 1 cbr 210 ------- 2 0.0 2.0 88 88
- 0.94 0 1 cbr 210 ------- 2 0.0 2.0 88 88
r 0.94172 1 2 cbr 210 ------- 2 0.0 2.0 79 79
r 0.94336 0 1 cbr 210 ------- 2 0.0 2.0 84 84
+ 0.94336 1 2 cbr 210 ------- 2 0.0 2.0 84 84
- 0.94336 1 2 cbr 210 ------- 2 0.0 2.0 84 84
+ 0.945 0 1 cbr 210 ------- 2 0.0 2.0 89 89
- 0.945 0 1 cbr 210 ------- 2 0.0 2.0 89 89
r 0.94672 1 2 cbr 210 ------- 2 0.0 2.0 80 80
r 0.94836 0 1 cbr 210 ------- 2 0.0 2.0 85 85
+ 0.94836 1 2 cbr 210 ------- 2 0.0 2.0 85 85
- 0.94836 1 2 cbr 210 ------- 2 0.0 2.0 85 85
+ 0.95 0 1 cbr 210 ------- 2 0.0 2.0 90 90
- 0.95 0 1 cbr 210 ------- 2 0.0 2.0 90 90
r 0.95172 1 2 cbr 210 ------- 2 0.0 2.0 81 81
r 0.95336 0 1 cbr 210 ------- 2 0.0 2.0 86 86
+ 0.95336 1 2 cbr 210 ------- 2 0.0 2.0 86 86
- 0.95336 1 2 cbr 210 ------- 2 0.0 2.0 86 86
+ 0.955 0 1 cbr 210 ------- 2 0.0 2.0 91 91
- 0.955 0 1 cbr 210 ------- 2 0.0 2.0 91 91
r 0.95672 1 2 cbr 210 ------- 2 0.0 2.0 82 82
r 0.95836 0 1 cbr 210 ------- 2 0.0 2.0 87 87
+ 0.95836 1 2 cbr 210 ------- 2 0.0 2.0 87 87
- 0.95836 1 2 cbr 210 ------- 2 0.0 2.0 87 87
+ 0.96 0 1 cbr 210 ------- 2 0.0 2.0 92 92
- 0.96 0 1 cbr 210 ------- 2 0.0 2.0 92 92
r 0.96172 1 2 cbr 210 ------- 2 0.0 2.0 83 83
r 0.96336 0 1 cbr 210 ------- 2 0.0 2.0 88 88
+ 0.96336 1 2 cbr 210 ------- 2 0.0 2.0 88 88
- 0.96336 1 2 cbr 210 ------- 2 0.0 2.0 88 88
+ 0.965 0 1 cbr 210 ------- 2 0.0 2.0 93 93
- 0.965 0 1 cbr 210 ------- 2 0.0 2.0 93 93
r 0.96672 1 2 cbr 210 ------- 2 0.0 2.0 84 84
r 0.96836 0 1 cbr 210 ------- 2 0.0 2.0 89 89
+ 0.96836 1 2 cbr 210 ------- 2 0.0 2.0 89 89
- 0.96836 1 2 cbr 210 ------- 2 0.0 2.0 89 89
+ 0.97 0 1 cbr 210 ------- 2 0.0 2.0 94 94
- 0.97 0 1 cbr 210 ------- 2 0.0 2.0 94 94
r 0.97172 1 2 cbr 210 ------- 2 0.0 2.0 85 85
r 0.97336 0 1 cbr 210 ------- 2 0.0 2.0 90 90
+ 0.97336 1 2 cbr 210 ------- 2 0.0 2.0 90 90
- 0.97336 1 2 cbr 210 ------- 2 0.0 2.0 90 90
+ 0.975 0 1 cbr 210 ------- 2 0.0 2.0 95 95
- 0.975 0 1 cbr 210 ------- 2 0.0 2.0 95 95
r 0.97672 1 2 cbr 210 ------- 2 0.0 2.0 86 86
r 0.97836 0 1 cbr 210 ------- 2 0.0 2.0 91 91
+ 0.97836 1 2 cbr 210 ------- 2 0.0 2.0 91 91
- 0.97836 1 2 cbr 210 ------- 2 0.0 2.0 91 91
+ 0.98 0 1 cbr 210 ------- 2 0.0 2.0 96 96
- 0.98 0 1 cbr 210 ------- 2 0.0 2.0 96 96
r 0.98172 1 2 cbr 210 ------- 2 0.0 2.0 87 87
r 0.98336 0 1 cbr 210 ------- 2 0.0 2.0 92 92
+ 0.98336 1 2 cbr 210 ------- 2 0.0 2.0 92 92
- 0.98336 1 2 cbr 210 ------- 2 0.0 2.0 92 92
+ 0.985 0 1 cbr 210 ------- 2 0.0 2.0 97 97
- 0.985 0 1 cbr 210 ------- 2 0.0 2.0 97 97
r 0.98672 1 2 cbr 210 ------- 2 0.0 2.0 88 88
r 0.98836 0 1 cbr 210 ------- 2 0.0 2.0 93 93
+ 0.98836 1 2 cbr 210 ------- 2 0.0 2.0 93 93
- 0.98836 1 2 cbr 210 ------- 2 0.0 2.0 93 93
+ 0.99 0 1 cbr 210 ------- 2 0.0 2.0 98 98
- 0.99 0 1 cbr 210 ------- 2 0.0 2.0 98 98
r 0.99172 1 2 cbr 210 ------- 2 0.0 2.0 89 89
r 0.99336 0 1 cbr 210 ------- 2 0.0 2.0 94 94
+ 0.99336 1 2 cbr 210 ------- 2 0.0 2.0 94 94
- 0.99336 1 2 cbr 210 ------- 2 0.0 2.0 94 94
+ 0.995 0 1 cbr 210 ------- 2 0.0 2.0 99 99
- 0.995 0 1 cbr 210 ------- 2 0.0 2.0 99 99
r 0.99672 1 2 cbr 210 ------- 2 0.0 2.0 90 90
r 0.99836 0 1 cbr 210 ------- 2 0.0 2.0 95 95
+ 0.99836 1 2 cbr 210 ------- 2 0.0 2.0 95 95
- 0.99836 1 2 cbr 210 ------- 2 0.0 2.0 95 95
+ 1 0 1 cbr 210 ------- 2 0.0 2.0 100 100
- 1 0 1 cbr 210 ------- 2 0.0 2.0 100 100
r 1.00172 1 2 cbr 210 ------- 2 0.0 2.0 91 91
r 1.00336 0 1 cbr 210 ------- 2 0.0 2.0 96 96
+ 1.00336 1 2 cbr 210 ------- 2 0.0 2.0 96 96
- 1.00336 1 2 cbr 210 ------- 2 0.0 2.0 96 96
+ 1.005 0 1 cbr 210 ------- 2 0.0 2.0 101 101
- 1.005 0 1 cbr 210 ------- 2 0.0 2.0 101 101
r 1.00672 1 2 cbr 210 ------- 2 0.0 2.0 92 92
r 1.00836 0 1 cbr 210 ------- 2 0.0 2.0 97 97
+ 1.00836 1 2 cbr 210 ------- 2 0.0 2.0 97 97
- 1.00836 1 2 cbr 210 ------- 2 0.0 2.0 97 97
+ 1.01 0 1 cbr 210 ------- 2 0.0 2.0 102 102
- 1.01 0 1 cbr 210 ------- 2 0.0 2.0 102 102
r 1.01172 1 2 cbr 210 ------- 2 0.0 2.0 93 93
r 1.01336 0 1 cbr 210 ------- 2 0.0 2.0 98 98
+ 1.01336 1 2 cbr 210 ------- 2 0.0 2.0 98 98
- 1.01336 1 2 cbr 210 ------- 2 0.0 2.0 98 98
+ 1.015 0 1 cbr 210 ------- 2 0.0 2.0 103 103
- 1.015 0 1 cbr 210 ------- 2 0.0 2.0 103 103
r 1.01672 1 2 cbr 210 ------- 2 0.0 2.0 94 94
r 1.01836 0 1 cbr 210 ------- 2 0.0 2.0 99 99
+ 1.01836 1 2 cbr 210 ------- 2 0.0 2.0 99 99
- 1.01836 1 2 cbr 210 ------- 2 0.0 2.0 99 99
+ 1.02 0 1 cbr 210 ------- 2 0.0 2.0 104 104
- 1.02 0 1 cbr 210 ------- 2 0.0 2.0 104 104
r 1.02172 1 2 cbr 210 ------- 2 0.0 2.0 95 95
r 1.02336 0 1 cbr 210 ------- 2 0.0 2.0 100 100
+ 1.02336 1 2 cbr 210 ------- 2 0.0 2.0 100 100
- 1.02336 1 2 cbr 210 ------- 2 0.0 2.0 100 100
+ 1.025 0 1 cbr 210 ------- 2 0.0 2.0 105 105
- 1.025 0 1 cbr 210 ------- 2 0.0 2.0 105 105
r 1.02672 1 2 cbr 210 ------- 2 0.0 2.0 96 96
r 1.02836 0 1 cbr 210 ------- 2 0.0 2.0 101 101
+ 1.02836 1 2 cbr 210 ------- 2 0.0 2.0 101 101
- 1.02836 1 2 cbr 210 ------- 2 0.0 2.0 101 101
+ 1.03 0 1 cbr 210 ------- 2 0.0 2.0 106 106
- 1.03 0 1 cbr 210 ------- 2 0.0 2.0 106 106
r 1.03172 1 2 cbr 210 ------- 2 0.0 2.0 97 97
r 1.03336 0 1 cbr 210 ------- 2 0.0 2.0 102 102
+ 1.03336 1 2 cbr 210 ------- 2 0.0 2.0 102 102
- 1.03336 1 2 cbr 210 ------- 2 0.0 2.0 102 102
+ 1.035 0 1 cbr 210 ------- 2 0.0 2.0 107 107
- 1.035 0 1 cbr 210 ------- 2 0.0 2.0 107 107
r 1.03672 1 2 cbr 210 ------- 2 0.0 2.0 98 98
r 1.03836 0 1 cbr 210 ------- 2 0.0 2.0 103 103
+ 1.03836 1 2 cbr 210 ------- 2 0.0 2.0 103 103
- 1.03836 1 2 cbr 210 ------- 2 0.0 2.0 103 103
+ 1.04 0 1 cbr 210 ------- 2 0.0 2.0 108 108
- 1.04 0 1 cbr 210 ------- 2 0.0 2.0 108 108
r 1.04172 1 2 cbr 210 ------- 2 0.0 2.0 99 99
r 1.04336 0 1 cbr 210 ------- 2 0.0 2.0 104 104
+ 1.04336 1 2 cbr 210 ------- 2 0.0 2.0 104 104
- 1.04336 1 2 cbr 210 ------- 2 0.0 2.0 104 104
+ 1.045 0 1 cbr 210 ------- 2 0.0 2.0 109 109
- 1.045 0 1 cbr 210 ------- 2 0.0 2.0 109 109
r 1.04672 1 2 cbr 210 ------- 2 0.0 2.0 100 100
r 1.04836 0 1 cbr 210 ------- 2 0.0 2.0 105 105
+ 1.04836 1 2 cbr 210 ------- 2 0.0 2.0 105 105
- 1.04836 1 2 cbr 210 ------- 2 0.0 2.0 105 105
+ 1.05 0 1 cbr 210 ------- 2 0.0 2.0 110 110
- 1.05 0 1 cbr 210 ------- 2 0.0 2.0 110 110
r 1.05172 1 2 cbr 210 ------- 2 0.0 2.0 101 101
r 1.05336 0 1 cbr 210 ------- 2 0.0 2.0 106 106
+ 1.05336 1 2 cbr 210 ------- 2 0.0 2.0 106 106
- 1.05336 1 2 cbr 210 ------- 2 0.0 2.0 106 106
+ 1.055 0 1 cbr 210 ------- 2 0.0 2.0 111 111
- 1.055 0 1 cbr 210 ------- 2 0.0 2.0 111 111
r 1.05672 1 2 cbr 210 ------- 2 0.0 2.0 102 102
r 1.05836 0 1 cbr 210 ------- 2 0.0 2.0 107 107
+ 1.05836 1 2 cbr 210 ------- 2 0.0 2.0 107 107
- 1.05836 1 2 cbr 210 ------- 2 0.0 2.0 107 107
+ 1.06 0 1 cbr 210 ------- 2 0.0 2.0 112 112
- 1.06 0 1 cbr 210 ------- 2 0.0 2.0 112 112
r 1.06172 1 2 cbr 210 ------- 2 0.0 2.0 103 103
r 1.06336 0 1 cbr 210 ------- 2 0.0 2.0 108 108
+ 1.06336 1 2 cbr 210 ------- 2 0.0 2.0 108 108
- 1.06336 1 2 cbr 210 ------- 2 0.0 2.0 108 108
+ 1.065 0 1 cbr 210 ------- 2 0.0 2.0 113 113
- 1.065 0 1 cbr 210 ------- 2 0.0 2.0 113 113
r 1.06672 1 2 cbr 210 ------- 2 0.0 2.0 104 104
r 1.06836 0 1 cbr 210 ------- 2 0.0 2.0 109 109
+ 1.06836 1 2 cbr 210 ------- 2 0.0 2.0 109 109
- 1.06836 1 2 cbr 210 ------- 2 0.0 2.0 109 109
+ 1.07 0 1 cbr 210 ------- 2 0.0 2.0 114 114